# vtk DataFile Version 3.0
0
ASCII

DATASET UNSTRUCTURED_GRID
POINTS 5014 double
1.7257881748437007e+00 2.1598088484816438e-02 0.0000000000000000e+00
1.7246052522571271e+00 2.2133184874560237e-02 0.0000000000000000e+00
1.7236683249450531e+00 2.0950746373938393e-02 0.0000000000000000e+00
1.7238029622673166e+00 1.9733765797517060e-02 0.0000000000000000e+00
1.7248120990649558e+00 1.8964209277979326e-02 0.0000000000000000e+00
1.7259622755887181e+00 1.9921821458830882e-02 0.0000000000000000e+00
1.7260594505892595e+00 2.0779223270346928e-02 0.0000000000000000e+00
1.7257881748437007e+00 2.1598088484816438e-02 0.0000000000000000e+00
1.7270005519171285e+00 2.2096879486273237e-02 0.0000000000000000e+00
1.7251029400289837e+00 2.3755662621986168e-02 0.0000000000000000e+00
1.7226869921036907e+00 2.2027679104835746e-02 0.0000000000000000e+00
1.7225525879121639e+00 1.9464172718000758e-02 0.0000000000000000e+00
1.7240710913896025e+00 1.7520583038395331e-02 0.0000000000000000e+00
1.7267432376674965e+00 1.8566653874357415e-02 0.0000000000000000e+00
1.7272785255682142e+00 2.0301938231258278e-02 0.0000000000000000e+00
1.7270005519171285e+00 2.2096879486273237e-02 0.0000000000000000e+00
1.7257881748437007e+00 2.1598088484816438e-02 0.0000000000000000e+00
1.7260594505892595e+00 2.0779223270346928e-02 0.0000000000000000e+00
1.7259622755887181e+00 1.9921821458830882e-02 0.0000000000000000e+00
1.7248120990649558e+00 1.8964209277979326e-02 0.0000000000000000e+00
1.7238029622673166e+00 1.9733765797517060e-02 0.0000000000000000e+00
1.7236683249450531e+00 2.0950746373938393e-02 0.0000000000000000e+00
1.7246052522571271e+00 2.2133184874560237e-02 0.0000000000000000e+00
1.7257881748437007e+00 2.1598088484816438e-02 0.0000000000000000e+00
1.7291556070347636e+00 2.3617046451378600e-02 0.0000000000000000e+00
1.7253694279747409e+00 2.6944857819396085e-02 0.0000000000000000e+00
1.7205276856512626e+00 2.3506960111728887e-02 0.0000000000000000e+00
1.7202495907983779e+00 1.8372917653479533e-02 0.0000000000000000e+00
1.7232790588878850e+00 1.4477734963054515e-02 0.0000000000000000e+00
1.7286294199724750e+00 1.6556343625711397e-02 0.0000000000000000e+00
1.7297062980162461e+00 2.0025644049945425e-02 0.0000000000000000e+00
1.7291556070347636e+00 2.3617046451378600e-02 0.0000000000000000e+00
1.7270005519171285e+00 2.2096879486273237e-02 0.0000000000000000e+00
1.7272785255682142e+00 2.0301938231258278e-02 0.0000000000000000e+00
1.7267432376674965e+00 1.8566653874357415e-02 0.0000000000000000e+00
1.7240710913896025e+00 1.7520583038395331e-02 0.0000000000000000e+00
1.7225525879121639e+00 1.9464172718000758e-02 0.0000000000000000e+00
1.7226869921036907e+00 2.2027679104835746e-02 0.0000000000000000e+00
1.7251029400289837e+00 2.3755662621986168e-02 0.0000000000000000e+00
1.7270005519171285e+00 2.2096879486273237e-02 0.0000000000000000e+00
1.7346026092977980e+00 2.0759912513511031e-02 0.0000000000000000e+00
1.7316136020760802e+00 2.9865768577971116e-02 0.0000000000000000e+00
1.7213834683121685e+00 3.2536432226290379e-02 0.0000000000000000e+00
1.7151734273003749e+00 2.2290240079653446e-02 0.0000000000000000e+00
1.7170233506680510e+00 1.2791494708964851e-02 0.0000000000000000e+00
1.7261012728232605e+00 7.8582786844908128e-03 0.0000000000000000e+00
1.7325863155298808e+00 1.2845853059944888e-02 0.0000000000000000e+00
1.7346026092977980e+00 2.0759912513511031e-02 0.0000000000000000e+00
1.7291556070347636e+00 2.3617046451378600e-02 0.0000000000000000e+00
1.7297062980162461e+00 2.0025644049945425e-02 0.0000000000000000e+00
1.7286294199724750e+00 1.6556343625711397e-02 0.0000000000000000e+00
1.7232790588878850e+00 1.4477734963054515e-02 0.0000000000000000e+00
1.7202495907983779e+00 1.8372917653479533e-02 0.0000000000000000e+00
1.7205276856512626e+00 2.3506960111728887e-02 0.0000000000000000e+00
1.7253694279747409e+00 2.6944857819396085e-02 0.0000000000000000e+00
1.7291556070347636e+00 2.3617046451378600e-02 0.0000000000000000e+00
1.7440857143950492e+00 2.5022392192319304e-02 0.0000000000000000e+00
1.7353813003611287e+00 4.2249442114673991e-02 0.0000000000000000e+00
1.7135093796762997e+00 4.1458727769625940e-02 0.0000000000000000e+00
1.7052566199003050e+00 1.9854341411006522e-02 0.0000000000000000e+00
1.7114619532995092e+00 1.6250462229733687e-03 0.0000000000000000e+00
1.7321930492820872e+00 -3.1205096187727002e-03 0.0000000000000000e+00
1.7422744345251433e+00 9.2443087574896003e-03 0.0000000000000000e+00
1.7440857143950492e+00 2.5022392192319304e-02 0.0000000000000000e+00
1.7346026092977980e+00 2.0759912513511031e-02 0.0000000000000000e+00
1.7325863155298808e+00 1.2845853059944888e-02 0.0000000000000000e+00
1.7261012728232605e+00 7.8582786844908128e-03 0.0000000000000000e+00
1.7170233506680510e+00 1.2791494708964851e-02 0.0000000000000000e+00
1.7151734273003749e+00 2.2290240079653446e-02 0.0000000000000000e+00
1.7213834683121685e+00 3.2536432226290379e-02 0.0000000000000000e+00
1.7316136020760802e+00 2.9865768577971116e-02 0.0000000000000000e+00
1.7346026092977980e+00 2.0759912513511031e-02 0.0000000000000000e+00
1.7621103426919968e+00 3.6158195011319588e-02 0.0000000000000000e+00
1.7497952256438152e+00 6.0223342034963448e-02 0.0000000000000000e+00
1.7259197485508804e+00 7.2017893949018683e-02 0.0000000000000000e+00
1.7013498762905674e+00 6.1882165795711000e-02 0.0000000000000000e+00
1.6879397582321547e+00 3.8403383354537197e-02 0.0000000000000000e+00
1.6860421397407617e+00 1.1308109643670322e-02 0.0000000000000000e+00
1.6954011414841126e+00 -1.4118052769413090e-02 0.0000000000000000e+00
1.7168639637957939e+00 -3.0077837597147050e-02 0.0000000000000000e+00
1.7428161651511342e+00 -2.4803787668437442e-02 0.0000000000000000e+00
1.7591692443176821e+00 -3.3662662736752107e-03 0.0000000000000000e+00
1.7636858724568025e+00 1.6169800707632902e-02 0.0000000000000000e+00
1.7621103426919968e+00 3.6158195011319588e-02 0.0000000000000000e+00
1.7440857143950492e+00 2.5022392192319304e-02 0.0000000000000000e+00
1.7422744345251433e+00 9.2443087574896003e-03 0.0000000000000000e+00
1.7321930492820872e+00 -3.1205096187727002e-03 0.0000000000000000e+00
1.7114619532995092e+00 1.6250462229733687e-03 0.0000000000000000e+00
1.7052566199003050e+00 1.9854341411006522e-02 0.0000000000000000e+00
1.7135093796762997e+00 4.1458727769625940e-02 0.0000000000000000e+00
1.7353813003611287e+00 4.2249442114673991e-02 0.0000000000000000e+00
1.7440857143950492e+00 2.5022392192319304e-02 0.0000000000000000e+00
1.7815626610797339e+00 4.2652005724658833e-02 0.0000000000000000e+00
1.7717645151402215e+00 6.8060816386804598e-02 0.0000000000000000e+00
1.7538428066697502e+00 8.8473880545002465e-02 0.0000000000000000e+00
1.7287251084122870e+00 9.8437226981089573e-02 0.0000000000000000e+00
1.7023001856722828e+00 9.3063834561138939e-02 0.0000000000000000e+00
1.6819206425082553e+00 7.5163803839036050e-02 0.0000000000000000e+00
1.6696647857175366e+00 5.0878093906027419e-02 0.0000000000000000e+00
1.6650206270071337e+00 2.4040136063315863e-02 0.0000000000000000e+00
1.6676044234016765e+00 -3.1316552094537917e-03 0.0000000000000000e+00
1.6776783979846346e+00 -2.8451680573012391e-02 0.0000000000000000e+00
1.6958796768526958e+00 -4.8588087587480441e-02 0.0000000000000000e+00
1.7213038586065601e+00 -5.7649371315533493e-02 0.0000000000000000e+00
1.7474630911954596e+00 -5.1080056773116042e-02 0.0000000000000000e+00
1.7673804200534482e+00 -3.2653591086725900e-02 0.0000000000000000e+00
1.7794085439992120e+00 -8.2119130454902396e-03 0.0000000000000000e+00
1.7837744753887665e+00 1.7080787180259759e-02 0.0000000000000000e+00
1.7815626610797339e+00 4.2652005724658833e-02 0.0000000000000000e+00
1.7621103426919968e+00 3.6158195011319588e-02 0.0000000000000000e+00
1.7636858724568025e+00 1.6169800707632902e-02 0.0000000000000000e+00
1.7591692443176821e+00 -3.3662662736752107e-03 0.0000000000000000e+00
1.7428161651511342e+00 -2.4803787668437442e-02 0.0000000000000000e+00
1.7168639637957939e+00 -3.0077837597147050e-02 0.0000000000000000e+00
1.6954011414841126e+00 -1.4118052769413090e-02 0.0000000000000000e+00
1.6860421397407617e+00 1.1308109643670322e-02 0.0000000000000000e+00
1.6879397582321547e+00 3.8403383354537197e-02 0.0000000000000000e+00
1.7013498762905674e+00 6.1882165795711000e-02 0.0000000000000000e+00
1.7259197485508804e+00 7.2017893949018683e-02 0.0000000000000000e+00
1.7497952256438152e+00 6.0223342034963448e-02 0.0000000000000000e+00
1.7621103426919968e+00 3.6158195011319588e-02 0.0000000000000000e+00
1.8038489408931582e+00 2.3741915283846778e-02 0.0000000000000000e+00
1.8006297286406883e+00 5.0864919107305256e-02 0.0000000000000000e+00
1.7916641584907715e+00 7.6666258985321978e-02 0.0000000000000000e+00
1.7767112474017552e+00 9.9455785648823833e-02 0.0000000000000000e+00
1.7557256631423190e+00 1.1675897818168703e-01 0.0000000000000000e+00
1.7298596309846559e+00 1.2511435205624027e-01 0.0000000000000000e+00
1.7029193826897013e+00 1.2176868421386955e-01 0.0000000000000000e+00
1.6795981328149931e+00 1.0782068066503619e-01 0.0000000000000000e+00
1.6621581521387627e+00 8.6895773272827423e-02 0.0000000000000000e+00
1.6507626884166757e+00 6.2054920018031208e-02 0.0000000000000000e+00
1.6450635641500886e+00 3.5366189249350907e-02 0.0000000000000000e+00
1.6447447295783466e+00 8.0256471370412329e-03 0.0000000000000000e+00
1.6497850590069534e+00 -1.8785150902992528e-02 0.0000000000000000e+00
1.6604513470007090e+00 -4.3906569431468360e-02 0.0000000000000000e+00
1.6771837157068725e+00 -6.5426155590270971e-02 0.0000000000000000e+00
1.6999840249951554e+00 -8.0246768103585803e-02 0.0000000000000000e+00
1.7267740363327047e+00 -8.4494974567838957e-02 0.0000000000000000e+00
1.7527894576283858e+00 -7.6838320036020480e-02 0.0000000000000000e+00
1.7742061752732743e+00 -6.0026212619874460e-02 0.0000000000000000e+00
1.7897676780931870e+00 -3.7657939647853092e-02 0.0000000000000000e+00
1.7995408643121484e+00 -1.2152041439825397e-02 0.0000000000000000e+00
1.8029132415321854e+00 5.6486224162870229e-03 0.0000000000000000e+00
[...]
CELL_DATA 65
SCALARS faceID double 1
LOOKUP_TABLE default
0
1
1
2
2
3
3
4
4
5
5
6
6
7
7
8
8
9
9
10
10
11
11
12
12
13
13
14
14
15
15
16
16
17
17
18
18
19
19
20
20
21
21
22
22
23
23
24
24
25
25
26
26
27
27
28
28
29
29
30
30
31
31
32
33
